
FAST Summary File

Predictions were generated on 06-Nov-2019 at 16:59:04 using OpenFAST, compiled as a 64-bit application using single precision at commit v2.0.0-dirty
  compiled with
    NWTC Subroutine Library
    ElastoDyn
    BeamDyn [not called]
    InflowWind
    AeroDyn14 [not called]
    AeroDyn
    ServoDyn
    HydroDyn [not called]
    SubDyn [not called]
    ExtPtfm_MCKF [not called]
    MAP [not called]
    FEAMooring [not called]
    MoorDyn [not called]
    OrcaFlexInterface [not called]
    IceFloe [not called]
    IceDyn [not called]


Modeling a land-based turbine
Description from the FAST input file: 
  AeroElasticSE FAST driver

Interpolation order for input/output time histories: 2 (quadratic)
Number of correction iterations:  0


   Requested Time Steps  
  -------------------------------------------------
  Component          Time Step (s)    Subcycles (-)
  -----------------  ---------------  -------------
  FAST (glue code)    6.250E-03
  InflowWind          6.250E-03              1
  ElastoDyn           6.250E-03              1
  AeroDyn             6.250E-03              1
  ServoDyn            6.250E-03              1
  FAST output files   6.250E-03              1


   Requested Channels in FAST Output File(s)  
  --------------------------------------------
  Number  Name        Units       Generated by
  ------  ----------  ----------  ------------
       1  Time        (s)         OpenFAST
       2  Wind1VelX   (m/s)       InflowWind
       3  Wind1VelY   (m/s)       InflowWind
       4  Wind1VelZ   (m/s)       InflowWind
       5  Azimuth     (deg)       ElastoDyn
       6  BldPitch1   (deg)       ElastoDyn
       7  GenSpeed    (rpm)       ElastoDyn
       8  IPDefl1     (m)         ElastoDyn
       9  LSSGagMya   (kN-m)      ElastoDyn
      10  LSSGagMza   (kN-m)      ElastoDyn
      11  OoPDefl1    (m)         ElastoDyn
      12  RootFxb1    (kN)        ElastoDyn
      13  RootFyb1    (kN)        ElastoDyn
      14  RootFzb1    (kN)        ElastoDyn
      15  RootMxb1    (kN-m)      ElastoDyn
      16  RootMyb1    (kN-m)      ElastoDyn
      17  RootMzb1    (kN-m)      ElastoDyn
      18  RotSpeed    (rpm)       ElastoDyn
      19  RotTorq     (kN-m)      ElastoDyn
      20  Spn2MLxb1   (kN-m)      ElastoDyn
      21  Spn2MLyb1   (kN-m)      ElastoDyn
      22  TTDspFA     (m)         ElastoDyn
      23  TTDspSS     (m)         ElastoDyn
      24  TTDspTwst   (deg)       ElastoDyn
      25  TwrBsFxt    (kN)        ElastoDyn
      26  TwrBsFyt    (kN)        ElastoDyn
      27  TwrBsFzt    (kN)        ElastoDyn
      28  TwrBsMxt    (kN-m)      ElastoDyn
      29  TwrBsMyt    (kN-m)      ElastoDyn
      30  TwrBsMzt    (kN-m)      ElastoDyn
      31  TwstDefl1   (deg)       ElastoDyn
      32  YawBrFxp    (kN)        ElastoDyn
      33  YawBrFyp    (kN)        ElastoDyn
      34  YawBrFzp    (kN)        ElastoDyn
      35  YawBrMxp    (kN-m)      ElastoDyn
      36  YawBrMyp    (kN-m)      ElastoDyn
      37  YawBrMzp    (kN-m)      ElastoDyn
      38  RtSpeed     (rpm)       AeroDyn
      39  RtTSR       (-)         AeroDyn
      40  RtVAvgxh    (m/s)       AeroDyn
      41  RtVAvgyh    (m/s)       AeroDyn
      42  RtVAvgzh    (m/s)       AeroDyn
      43  RtSkew      (deg)       AeroDyn
      44  RtAeroFxh   (N)         AeroDyn
      45  RtAeroFyh   (N)         AeroDyn
      46  RtAeroFzh   (N)         AeroDyn
      47  RtAeroMxh   (N-m)       AeroDyn
      48  RtAeroMyh   (N-m)       AeroDyn
      49  RtAeroMzh   (N-m)       AeroDyn
      50  RtAeroPwr   (W)         AeroDyn
      51  RtArea      (m^2)       AeroDyn
      52  RtAeroCp    (-)         AeroDyn
      53  RtAeroCq    (-)         AeroDyn
      54  RtAeroCt    (-)         AeroDyn
      55  GenPwr      (kW)        ServoDyn
      56  GenTq       (kN-m)      ServoDyn
